<?xml version="1.0" encoding="UTF-8"?>

<!-- generated on 2024-01-17 17:12:13 by Eclipse SUMO sumo Version 1.18.0
<configuration xmlns:xsi="http://www.w3.org/2001/XMLSchema-instance" xsi:noNamespaceSchemaLocation="http://sumo.dlr.de/xsd/sumoConfiguration.xsd">

    <input>
        <net-file value="scenarios/bologna/acosta/acosta_buslanes.net.xml"/>
        <route-files value="scenarios/bologna/acosta/acosta.rou.xml,scenarios/bologna/acosta/acosta_busses.rou.xml"/>
        <additional-files value="scenarios/bologna/acosta/acosta_vtypes.add.xml,scenarios/bologna/acosta/acosta_detectors.add.xml,scenarios/bologna/acosta/acosta_bus_stops.add.xml,scenarios/bologna/acosta/acosta_tls.add.xml"/>
    </input>

    <output>
        <output-prefix value="6285e666-d1e6-4c71-b914-bbcc0a21808d"/>
        <summary-output value="scenarios/bologna/acosta/summary.xml"/>
        <tripinfo-output value="scenarios/bologna/acosta/tripinfo-output.xml"/>
        <statistic-output value="scenarios/bologna/acosta/statistics.xml"/>
    </output>

    <report>
        <log value="scenarios/bologna/acosta/sumo_log.txt"/>
        <no-step-log value="true"/>
    </report>

    <gui_only>
        <gui-settings-file value="scenarios/bologna/acosta/settings.gui.xml"/>
    </gui_only>

</configuration>
-->

<tripinfos xmlns:xsi="http://www.w3.org/2001/XMLSchema-instance" xsi:noNamespaceSchemaLocation="http://sumo.dlr.de/xsd/tripinfo_file.xsd">
    <tripinfo id="Audinot_7_0" depart="0.00" departLane="131_0" departPos="0.00" departSpeed="0.00" departDelay="0.00" arrival="104.00" arrivalLane="209_0" arrivalPos="395.59" arrivalSpeed="12.41" duration="104.00" routeLength="873.23" waitingTime="25.00" waitingCount="1" stopTime="0.00" timeLoss="37.57" rerouteNo="0" devices="tripinfo_Audinot_7_0" vType="passenger4" speedFactor="0.98" vaporized=""/>
    <tripinfo id="Togliatti_12_15" depart="21.00" departLane="85_2" departPos="0.00" departSpeed="0.00" departDelay="0.00" arrival="104.00" arrivalLane="136_0" arrivalPos="186.20" arrivalSpeed="11.73" duration="83.00" routeLength="909.95" waitingTime="0.00" waitingCount="0" stopTime="0.00" timeLoss="10.82" rerouteNo="0" devices="tripinfo_Togliatti_12_15" vType="passenger3" speedFactor="0.94" vaporized=""/>
    <tripinfo id="Togliatti_2_8" depart="11.00" departLane="85_0" departPos="0.00" departSpeed="0.00" departDelay="0.00" arrival="112.00" arrivalLane="77[1][1]_0" arrivalPos="463.98" arrivalSpeed="15.06" duration="101.00" routeLength="1145.48" waitingTime="7.00" waitingCount="1" stopTime="0.00" timeLoss="24.83" rerouteNo="0" devices="tripinfo_Togliatti_2_8" vType="passenger2a" speedFactor="1.10" vaporized=""/>
    <tripinfo id="Silvani_11_9" depart="21.00" departLane="203[0]_0" departPos="0.00" departSpeed="0.00" departDelay="0.00" arrival="114.00" arrivalLane="114_1" arrivalPos="692.70" arrivalSpeed="15.00" duration="93.00" routeLength="1114.25" waitingTime="5.00" waitingCount="1" stopTime="0.00" timeLoss="23.01" rerouteNo="0" devices="tripinfo_Silvani_11_9" vType="passenger4" speedFactor="1.15" vaporized=""/>
    <tripinfo id="Pepoli_8_16" depart="27.00" departLane="210_0" departPos="0.00" departSpeed="0.00" departDelay="0.00" arrival="115.00" arrivalLane="134b_0" arrivalPos="156.17" arrivalSpeed="14.62" duration="88.00" routeLength="692.71" waitingTime="25.00" waitingCount="1" stopTime="0.00" timeLoss="40.57" rerouteNo="0" devices="tripinfo_Pepoli_8_16" vType="passenger1" speedFactor="1.09" vaporized=""/>
    <tripinfo id="Togliatti_12_24" depart="34.00" departLane="85_2" departPos="0.00" departSpeed="0.00" departDelay="0.00" arrival="115.00" arrivalLane="136_0" arrivalPos="186.20" arrivalSpeed="12.16" duration="81.00" routeLength="909.95" waitingTime="0.00" waitingCount="0" stopTime="0.00" timeLoss="10.86" rerouteNo="0" devices="tripinfo_Togliatti_12_24" vType="passenger1" speedFactor="0.95" vaporized=""/>
    <tripinfo id="Pepoli_8_21" depart="36.00" departLane="210_0" departPos="0.00" departSpeed="0.00" departDelay="0.00" arrival="117.00" arrivalLane="134b_0" arrivalPos="156.17" arrivalSpeed="16.86" duration="81.00" routeLength="692.71" waitingTime="18.00" waitingCount="1" stopTime="0.00" timeLoss="39.76" rerouteNo="0" devices="tripinfo_Pepoli_8_21" vType="passenger1" speedFactor="1.25" vaporized=""/>
    <tripinfo id="Pepoli_8_23" depart="39.00" departLane="210_0" departPos="0.00" departSpeed="0.00" departDelay="0.00" arrival="120.00" arrivalLane="134b_0" arrivalPos="156.17" arrivalSpeed="15.11" duration="81.00" routeLength="692.71" waitingTime="16.00" waitingCount="1" stopTime="0.00" timeLoss="35.94" rerouteNo="0" devices="tripinfo_Pepoli_8_23" vType="passenger1" speedFactor="1.13" vaporized=""/>
    <tripinfo id="Silvani_11_1" depart="3.00" departLane="203[0]_0" departPos="0.00" departSpeed="0.00" departDelay="1.00" arrival="121.00" arrivalLane="114_0" arrivalPos="692.70" arrivalSpeed="11.92" duration="118.00" routeLength="1114.25" waitingTime="15.00" waitingCount="1" stopTime="0.00" timeLoss="30.75" rerouteNo="0" devices="tripinfo_Silvani_11_1" vType="passenger2b" speedFactor="0.92" vaporized=""/>
    <tripinfo id="Costa_1_4" depart="15.00" departLane="78[0]_0" departPos="0.00" departSpeed="0.00" departDelay="5.00" arrival="121.00" arrivalLane="86_2" arrivalPos="321.19" arrivalSpeed="13.28" duration="106.00" routeLength="1182.55" waitingTime="4.00" waitingCount="1" stopTime="0.00" timeLoss="18.81" rerouteNo="0" devices="tripinfo_Costa_1_4" vType="passenger2a" speedFactor="0.99" vaporized=""/>
    <tripinfo id="Silvani_11_14" depart="33.00" departLane="203[0]_0" departPos="0.00" departSpeed="0.00" departDelay="0.00" arrival="121.00" arrivalLane="114_2" arrivalPos="692.70" arrivalSpeed="15.33" duration="88.00" routeLength="1114.25" waitingTime="0.00" waitingCount="0" stopTime="0.00" timeLoss="16.82" rerouteNo="0" devices="tripinfo_Silvani_11_14" vType="passenger3" speedFactor="1.14" vaporized=""/>
    <tripinfo id="Costa_1_2" depart="9.00" departLane="78[0]_0" departPos="0.00" departSpeed="0.00" departDelay="4.00" arrival="122.00" arrivalLane="86_0" arrivalPos="321.19" arrivalSpeed="13.52" duration="113.00" routeLength="1188.91" waitingTime="12.00" waitingCount="1" stopTime="0.00" timeLoss="26.50" rerouteNo="0" devices="tripinfo_Costa_1_2" vType="passenger2b" speedFactor="1.02" vaporized=""/>
    <tripinfo id="Silvani_11_8" depart="18.00" departLane="203[0]_0" departPos="0.00" departSpeed="0.00" departDelay="0.00" arrival="122.00" arrivalLane="114_1" arrivalPos="692.70" arrivalSpeed="12.35" duration="104.00" routeLength="1114.25" waitingTime="6.00" waitingCount="1" stopTime="0.00" timeLoss="19.48" rerouteNo="0" devices="tripinfo_Silvani_11_8" vType="passenger3" speedFactor="0.96" vaporized=""/>
    <tripinfo id="Silvani_11_13" depart="30.00" departLane="203[0]_0" departPos="0.00" departSpeed="0.00" departDelay="0.00" arrival="124.00" arrivalLane="114_1" arrivalPos="692.70" arrivalSpeed="13.42" duration="94.00" routeLength="1114.25" waitingTime="0.00" waitingCount="0" stopTime="0.00" timeLoss="17.51" rerouteNo="0" devices="tripinfo_Silvani_11_13" vType="passenger1" speedFactor="1.06" vaporized=""/>
    <tripinfo id="Silvani_11_0" depart="0.00" departLane="203[0]_0" departPos="0.00" departSpeed="0.00" departDelay="0.00" arrival="126.00" arrivalLane="114_0" arrivalPos="692.70" arrivalSpeed="11.10" duration="126.00" routeLength="1114.25" waitingTime="16.00" waitingCount="1" stopTime="0.00" timeLoss="28.86" rerouteNo="0" devices="tripinfo_Silvani_11_0" vType="passenger3" speedFactor="0.83" vaporized=""/>
    <tripinfo id="Silvani_11_12" depart="28.00" departLane="203[0]_0" departPos="0.00" departSpeed="0.00" departDelay="0.00" arrival="126.00" arrivalLane="114_1" arrivalPos="692.70" arrivalSpeed="12.43" duration="98.00" routeLength="1114.25" waitingTime="1.00" waitingCount="1" stopTime="0.00" timeLoss="15.12" rerouteNo="0" devices="tripinfo_Silvani_11_12" vType="passenger2b" speedFactor="0.98" vaporized=""/>
    <tripinfo id="Togliatti_3_18" depart="25.00" departLane="85_0" departPos="0.00" departSpeed="0.00" departDelay="0.00" arrival="128.00" arrivalLane="14_0" arrivalPos="77.26" arrivalSpeed="12.69" duration="103.00" routeLength="1110.28" waitingTime="0.00" waitingCount="0" stopTime="0.00" timeLoss="12.58" rerouteNo="0" devices="tripinfo_Togliatti_3_18" vType="passenger2a" speedFactor="0.92" vaporized=""/>
    <tripinfo id="Costa_3_21" depart="55.00" departLane="78[0]_0" departPos="0.00" departSpeed="0.00" departDelay="1.00" arrival="129.00" arrivalLane="14_0" arrivalPos="77.26" arrivalSpeed="14.14" duration="74.00" routeLength="850.23" waitingTime="0.00" waitingCount="0" stopTime="0.00" timeLoss="18.51" rerouteNo="0" devices="tripinfo_Costa_3_21" vType="passenger1" speedFactor="1.13" vaporized=""/>
    <tripinfo id="Costa_1_15" depart="39.00" departLane="78[0]_0" departPos="0.00" departSpeed="0.00" departDelay="0.00" arrival="133.00" arrivalLane="86_2" arrivalPos="321.19" arrivalSpeed="15.61" duration="94.00" routeLength="1185.38" waitingTime="0.00" waitingCount="0" stopTime="0.00" timeLoss="18.81" rerouteNo="0" devices="tripinfo_Costa_1_15" vType="passenger4" speedFactor="1.18" vaporized=""/>
    <tripinfo id="Togliatti_3_31" depart="44.00" departLane="85_0" departPos="0.00" departSpeed="0.00" departDelay="0.00" arrival="136.00" arrivalLane="14_0" arrivalPos="77.26" arrivalSpeed="13.55" duration="92.00" routeLength="1110.28" waitingTime="0.00" waitingCount="0" stopTime="0.00" timeLoss="12.79" rerouteNo="0" devices="tripinfo_Togliatti_3_31" vType="passenger1" speedFactor="1.04" vaporized=""/>
    <tripinfo id="Costa_1_19" depart="50.00" departLane="78[0]_0" departPos="0.00" departSpeed="0.00" departDelay="1.00" arrival="139.00" arrivalLane="86_2" arrivalPos="321.19" arrivalSpeed="16.53" duration="89.00" routeLength="1185.38" waitingTime="0.00" waitingCount="0" stopTime="0.00" timeLoss="16.98" rerouteNo="0" devices="tripinfo_Costa_1_19" vType="passenger2a" speedFactor="1.21" vaporized=""/>
    <tripinfo id="Costa_12_0" depart="0.00" departLane="78[0]_0" departPos="0.00" departSpeed="0.00" departDelay="0.00" arrival="140.00" arrivalLane="136_0" arrivalPos="186.20" arrivalSpeed="15.04" duration="140.00" routeLength="1416.45" waitingTime="22.00" waitingCount="1" stopTime="0.00" timeLoss="44.22" rerouteNo="0" devices="tripinfo_Costa_12_0" vType="passenger1" speedFactor="1.08" vaporized=""/>
    <tripinfo id="Togliatti_2_32" depart="47.00" departLane="85_0" departPos="0.00" departSpeed="0.00" departDelay="2.00" arrival="141.00" arrivalLane="77[1][1]_0" arrivalPos="463.98" arrivalSpeed="14.17" duration="94.00" routeLength="1145.48" waitingTime="0.00" waitingCount="0" stopTime="0.00" timeLoss="12.18" rerouteNo="0" devices="tripinfo_Togliatti_2_32" vType="passenger3" speedFactor="1.04" vaporized=""/>
    <tripinfo id="Costa_1_17" depart="44.00" departLane="78[0]_0" departPos="0.00" departSpeed="0.00" departDelay="0.00" arrival="142.00" arrivalLane="86_1" arrivalPos="321.19" arrivalSpeed="13.99" duration="98.00" routeLength="1191.74" waitingTime="0.00" waitingCount="0" stopTime="0.00" timeLoss="12.08" rerouteNo="0" devices="tripinfo_Costa_1_17" vType="passenger1" speedFactor="1.03" vaporized=""/>
    <tripinfo id="Costa_12_1" depart="7.00" departLane="78[0]_0" departPos="0.00" departSpeed="0.00" departDelay="5.00" arrival="143.00" arrivalLane="136_0" arrivalPos="186.20" arrivalSpeed="14.20" duration="136.00" routeLength="1416.45" waitingTime="16.00" waitingCount="1" stopTime="0.00" timeLoss="39.62" rerouteNo="0" devices="tripinfo_Costa_12_1" vType="passenger2b" speedFactor="1.09" vaporized=""/>
    <tripinfo id="Costa_12_3" depart="12.00" departLane="78[0]_0" departPos="0.00" departSpeed="0.00" departDelay="5.00" arrival="148.00" arrivalLane="136_0" arrivalPos="186.20" arrivalSpeed="12.80" duration="136.00" routeLength="1416.45" waitingTime="7.00" waitingCount="1" stopTime="0.00" timeLoss="31.76" rerouteNo="0" devices="tripinfo_Costa_12_3" vType="passenger1" speedFactor="1.01" vaporized=""/>
    <tripinfo id="XXI_Aprile_12_6" depart="21.00" departLane="13_0" departPos="0.00" departSpeed="0.00" departDelay="0.00" arrival="152.00" arrivalLane="136_0" arrivalPos="186.20" arrivalSpeed="12.21" duration="131.00" routeLength="1343.89" waitingTime="5.00" waitingCount="1" stopTime="0.00" timeLoss="26.39" rerouteNo="0" devices="tripinfo_XXI_Aprile_12_6" vType="passenger1" speedFactor="0.94" vaporized=""/>
    <tripinfo id="Costa_12_7" depart="19.00" departLane="78[0]_0" departPos="0.00" departSpeed="0.00" departDelay="1.00" arrival="154.00" arrivalLane="136_0" arrivalPos="186.20" arrivalSpeed="14.98" duration="135.00" routeLength="1416.45" waitingTime="5.00" waitingCount="1" stopTime="0.00" timeLoss="39.55" rerouteNo="0" devices="tripinfo_Costa_12_7" vType="passenger5" speedFactor="1.10" vaporized=""/>
    <tripinfo id="Turati_3_2" depart="69.00" departLane="195_0" departPos="0.00" departSpeed="0.00" departDelay="0.00" arrival="155.00" arrivalLane="14_0" arrivalPos="77.26" arrivalSpeed="13.22" duration="86.00" routeLength="947.57" waitingTime="2.00" waitingCount="1" stopTime="0.00" timeLoss="16.82" rerouteNo="0" devices="tripinfo_Turati_3_2" vType="ignoring1" speedFactor="1.00" vaporized=""/>
    <tripinfo id="Costa_12_9" depart="26.00" departLane="78[0]_0" departPos="0.00" departSpeed="0.00" departDelay="3.00" arrival="159.00" arrivalLane="136_0" arrivalPos="186.20" arrivalSpeed="11.63" duration="133.00" routeLength="1416.45" waitingTime="0.00" waitingCount="0" stopTime="0.00" timeLoss="18.46" rerouteNo="0" devices="tripinfo_Costa_12_9" vType="passenger3" speedFactor="0.91" vaporized=""/>
    <tripinfo id="Costa_12_11" depart="29.00" departLane="78[0]_0" departPos="0.00" departSpeed="0.00" departDelay="1.00" arrival="160.00" arrivalLane="136_0" arrivalPos="186.20" arrivalSpeed="13.85" duration="131.00" routeLength="1413.62" waitingTime="0.00" waitingCount="0" stopTime="0.00" timeLoss="35.07" rerouteNo="0" devices="tripinfo_Costa_12_11" vType="passenger2a" speedFactor="1.08" vaporized=""/>
    <tripinfo id="Costa_12_13" depart="33.00" departLane="78[0]_0" departPos="0.00" departSpeed="0.00" departDelay="0.00" arrival="162.00" arrivalLane="136_0" arrivalPos="186.20" arrivalSpeed="14.55" duration="129.00" routeLength="1416.45" waitingTime="0.00" waitingCount="0" stopTime="0.00" timeLoss="33.26" rerouteNo="0" devices="tripinfo_Costa_12_13" vType="passenger2b" speedFactor="1.10" vaporized=""/>
    <tripinfo id="Costa_12_14" depart="36.00" departLane="78[0]_0" departPos="0.00" departSpeed="0.00" departDelay="0.00" arrival="163.00" arrivalLane="136_0" arrivalPos="186.20" arrivalSpeed="13.65" duration="127.00" routeLength="1413.62" waitingTime="0.00" waitingCount="0" stopTime="0.00" timeLoss="29.26" rerouteNo="0" devices="tripinfo_Costa_12_14" vType="passenger3" speedFactor="1.06" vaporized=""/>
    <tripinfo id="Vittorio_Veneto_1_4" depart="18.00" departLane="224[0]_0" departPos="0.00" departSpeed="0.00" departDelay="0.00" arrival="165.00" arrivalLane="86_0" arrivalPos="321.19" arrivalSpeed="13.81" duration="147.00" routeLength="1142.43" waitingTime="43.00" waitingCount="2" stopTime="0.00" timeLoss="62.68" rerouteNo="0" devices="tripinfo_Vittorio_Veneto_1_4" vType="passenger1" speedFactor="1.00" vaporized=""/>
    <tripinfo id="Vittorio_Veneto_1_10" depart="45.00" departLane="224[0]_0" departPos="0.00" departSpeed="0.00" departDelay="0.00" arrival="165.00" arrivalLane="86_1" arrivalPos="321.19" arrivalSpeed="13.47" duration="120.00" routeLength="1142.43" waitingTime="15.00" waitingCount="2" stopTime="0.00" timeLoss="37.18" rerouteNo="0" devices="tripinfo_Vittorio_Veneto_1_10" vType="passenger1" speedFactor="1.01" vaporized=""/>
    <tripinfo id="Costa_12_18" depart="47.00" departLane="78[0]_0" departPos="0.00" departSpeed="0.00" departDelay="0.00" arrival="165.00" arrivalLane="136_0" arrivalPos="186.20" arrivalSpeed="14.39" duration="118.00" routeLength="1413.62" waitingTime="0.00" waitingCount="0" stopTime="0.00" timeLoss="24.03" rerouteNo="0" devices="tripinfo_Costa_12_18" vType="passenger1" speedFactor="1.11" vaporized=""/>
    <tripinfo id="XXI_Aprile_2_12" depart="42.00" departLane="13_0" departPos="0.00" departSpeed="0.00" departDelay="0.00" arrival="170.00" arrivalLane="77[1][1]_0" arrivalPos="463.98" arrivalSpeed="14.30" duration="128.00" routeLength="976.81" waitingTime="44.00" waitingCount="1" stopTime="0.00" timeLoss="62.19" rerouteNo="0" devices="tripinfo_XXI_Aprile_2_12" vType="passenger4" speedFactor="1.10" vaporized=""/>
    <tripinfo id="Vittorio_Veneto_1_12" depart="55.00" departLane="224[0]_0" departPos="0.00" departSpeed="0.00" departDelay="0.00" arrival="171.00" arrivalLane="86_0" arrivalPos="321.19" arrivalSpeed="11.56" duration="116.00" routeLength="1142.43" waitingTime="3.00" waitingCount="1" stopTime="0.00" timeLoss="19.41" rerouteNo="0" devices="tripinfo_Vittorio_Veneto_1_12" vType="passenger1" speedFactor="0.87" vaporized=""/>
    <tripinfo id="Silvani_7_4" depart="9.00" departLane="203[0]_1" departPos="0.00" departSpeed="0.00" departDelay="0.00" arrival="176.00" arrivalLane="209_0" arrivalPos="395.59" arrivalSpeed="15.58" duration="167.00" routeLength="1451.40" waitingTime="49.00" waitingCount="3" stopTime="0.00" timeLoss="76.15" rerouteNo="0" devices="tripinfo_Silvani_7_4" vType="passenger2a" speedFactor="1.15" vaporized=""/>
    <tripinfo id="Pepoli_8_25" depart="42.00" departLane="210_0" departPos="0.00" departSpeed="0.00" departDelay="0.00" arrival="178.00" arrivalLane="134b_0" arrivalPos="156.17" arrivalSpeed="14.24" duration="136.00" routeLength="692.71" waitingTime="64.00" waitingCount="2" stopTime="0.00" timeLoss="85.77" rerouteNo="0" devices="tripinfo_Pepoli_8_25" vType="passenger2a" speedFactor="1.03" vaporized=""/>
    <tripinfo id="Silvani_7_7" depart="16.00" departLane="203[0]_1" departPos="0.00" departSpeed="0.00" departDelay="0.00" arrival="179.00" arrivalLane="209_0" arrivalPos="395.59" arrivalSpeed="14.18" duration="163.00" routeLength="1451.40" waitingTime="38.00" waitingCount="3" stopTime="0.00" timeLoss="64.14" rerouteNo="0" devices="tripinfo_Silvani_7_7" vType="passenger2a" speedFactor="1.06" vaporized=""/>
    <tripinfo id="Pepoli_8_28" depart="48.00" departLane="210_0" departPos="0.00" departSpeed="0.00" departDelay="0.00" arrival="179.00" arrivalLane="134b_0" arrivalPos="156.17" arrivalSpeed="14.31" duration="131.00" routeLength="692.71" waitingTime="60.00" waitingCount="2" stopTime="0.00" timeLoss="85.78" rerouteNo="0" devices="tripinfo_Pepoli_8_28" vType="passenger3" speedFactor="1.13" vaporized=""/>
    <tripinfo id="Turati_3_3" depart="104.00" departLane="195_0" departPos="0.00" departSpeed="0.00" departDelay="0.00" arrival="182.00" arrivalLane="14_0" arrivalPos="77.26" arrivalSpeed="13.52" duration="78.00" routeLength="947.57" waitingTime="0.00" waitingCount="0" stopTime="0.00" timeLoss="8.25" rerouteNo="0" devices="tripinfo_Turati_3_3" vType="ignoring1" speedFactor="1.00" vaporized=""/>
    <tripinfo id="Silvani_7_11" depart="25.00" departLane="203[0]_0" departPos="0.00" departSpeed="0.00" departDelay="0.00" arrival="184.00" arrivalLane="209_2" arrivalPos="395.59" arrivalSpeed="13.65" duration="159.00" routeLength="1454.90" waitingTime="20.00" waitingCount="3" stopTime="0.00" timeLoss="57.18" rerouteNo="0" devices="tripinfo_Silvani_7_11" vType="passenger1" speedFactor="1.03" vaporized=""/>
    <tripinfo id="Silvani_7_2" depart="4.00" departLane="203[0]_1" departPos="0.00" departSpeed="0.00" departDelay="0.00" arrival="185.00" arrivalLane="209_0" arrivalPos="395.59" arrivalSpeed="12.45" duration="181.00" routeLength="1454.90" waitingTime="46.00" waitingCount="3" stopTime="0.00" timeLoss="70.74" rerouteNo="0" devices="tripinfo_Silvani_7_2" vType="passenger1" speedFactor="0.95" vaporized=""/>
    <tripinfo id="Silvani_7_5" depart="11.00" departLane="203[0]_0" departPos="0.00" departSpeed="0.00" departDelay="0.00" arrival="186.00" arrivalLane="209_0" arrivalPos="395.59" arrivalSpeed="12.06" duration="175.00" routeLength="1454.90" waitingTime="39.00" waitingCount="3" stopTime="0.00" timeLoss="62.85" rerouteNo="0" devices="tripinfo_Silvani_7_5" vType="passenger2a" speedFactor="0.94" vaporized=""/>
    <tripinfo id="Silvani_7_15" depart="35.00" departLane="203[0]_1" departPos="0.00" departSpeed="0.00" departDelay="0.00" arrival="186.00" arrivalLane="209_2" arrivalPos="395.59" arrivalSpeed="14.43" duration="151.00" routeLength="1454.90" waitingTime="19.00" waitingCount="2" stopTime="0.00" timeLoss="53.28" rerouteNo="0" devices="tripinfo_Silvani_7_15" vType="passenger5" speedFactor="1.08" vaporized=""/>
    <tripinfo id="Togliatti_12_48" depart="68.00" departLane="85_2" departPos="0.00" departSpeed="0.00" departDelay="0.00" arrival="191.00" arrivalLane="136_0" arrivalPos="186.20" arrivalSpeed="13.06" duration="123.00" routeLength="909.95" waitingTime="40.00" waitingCount="1" stopTime="0.00" timeLoss="58.76" rerouteNo="0" devices="tripinfo_Togliatti_12_48" vType="passenger2a" speedFactor="1.04" vaporized=""/>
    <tripinfo id="Silvani_7_3" depart="7.00" departLane="203[0]_0" departPos="0.00" departSpeed="0.00" departDelay="0.00" arrival="192.00" arrivalLane="209_0" arrivalPos="395.59" arrivalSpeed="11.66" duration="185.00" routeLength="1458.40" waitingTime="37.00" waitingCount="3" stopTime="0.00" timeLoss="64.50" rerouteNo="0" devices="tripinfo_Silvani_7_3" vType="passenger1" speedFactor="0.87" vaporized=""/>
    <tripinfo id="XXI_Aprile_7_0" depart="0.00" departLane="8_0" departPos="0.00" departSpeed="0.00" departDelay="0.00" arrival="193.00" arrivalLane="209_1" arrivalPos="395.59" arrivalSpeed="13.98" duration="193.00" routeLength="2111.89" waitingTime="10.00" waitingCount="1" stopTime="0.00" timeLoss="39.02" rerouteNo="0" devices="tripinfo_XXI_Aprile_7_0" vType="passenger1" speedFactor="1.01" vaporized=""/>
    <tripinfo id="Togliatti_12_59" depart="84.00" departLane="85_2" departPos="0.00" departSpeed="0.00" departDelay="0.00" arrival="193.00" arrivalLane="136_0" arrivalPos="186.20" arrivalSpeed="14.68" duration="109.00" routeLength="909.95" waitingTime="23.00" waitingCount="1" stopTime="0.00" timeLoss="48.59" rerouteNo="0" devices="tripinfo_Togliatti_12_59" vType="passenger1" speedFactor="1.12" vaporized=""/>
    <tripinfo id="Costa_3_33" depart="88.00" departLane="78[0]_0" departPos="0.00" departSpeed="0.00" departDelay="2.00" arrival="195.00" arrivalLane="14_0" arrivalPos="77.26" arrivalSpeed="11.86" duration="107.00" routeLength="850.23" waitingTime="10.00" waitingCount="1" stopTime="0.00" timeLoss="41.56" rerouteNo="0" devices="tripinfo_Costa_3_33" vType="passenger2b" speedFactor="0.95" vaporized=""/>
    <tripinfo id="bus_13_0" depart="0.00" departLane="55_0" departPos="0.00" departSpeed="0.00" departDelay="0.00" arrival="196.00" arrivalLane="114_1" arrivalPos="692.70" arrivalSpeed="13.50" duration="196.00" routeLength="1058.08" waitingTime="60.00" waitingCount="2" stopTime="40.00" timeLoss="79.69" rerouteNo="0" devices="tripinfo_bus_13_0" vType="bus" speedFactor="1.00" vaporized=""/>
    <tripinfo id="XXI_Aprile_7_1" depart="3.00" departLane="8_0" departPos="0.00" departSpeed="0.00" departDelay="0.00" arrival="196.00" arrivalLane="209_0" arrivalPos="395.59" arrivalSpeed="12.58" duration="193.00" routeLength="2111.89" waitingTime="3.00" waitingCount="1" stopTime="0.00" timeLoss="34.16" rerouteNo="0" devices="tripinfo_XXI_Aprile_7_1" vType="passenger1" speedFactor="0.99" vaporized=""/>
    <tripinfo id="bus_81_0" depart="4.00" departLane="55_0" departPos="0.00" departSpeed="0.00" departDelay="4.00" arrival="197.00" arrivalLane="114_0" arrivalPos="692.70" arrivalSpeed="13.09" duration="193.00" routeLength="1058.08" waitingTime="51.00" waitingCount="1" stopTime="40.00" timeLoss="76.35" rerouteNo="0" devices="tripinfo_bus_81_0" vType="bus" speedFactor="1.00" vaporized=""/>
    <tripinfo id="Costa_3_38" depart="102.00" departLane="78[0]_0" departPos="0.00" departSpeed="0.00" departDelay="3.00" arrival="197.00" arrivalLane="14_0" arrivalPos="77.26" arrivalSpeed="13.25" duration="95.00" routeLength="850.23" waitingTime="8.00" waitingCount="2" stopTime="0.00" timeLoss="29.42" rerouteNo="0" devices="tripinfo_Costa_3_38" vType="passenger1" speedFactor="0.96" vaporized=""/>
    <tripinfo id="Togliatti_12_79" depart="112.00" departLane="85_2" departPos="0.00" departSpeed="0.00" departDelay="0.00" arrival="197.00" arrivalLane="136_0" arrivalPos="186.20" arrivalSpeed="13.26" duration="85.00" routeLength="909.95" waitingTime="0.00" waitingCount="0" stopTime="0.00" timeLoss="18.31" rerouteNo="0" devices="tripinfo_Togliatti_12_79" vType="passenger1" speedFactor="1.02" vaporized=""/>
    <tripinfo id="XXI_Aprile_7_7" depart="24.00" departLane="8_0" departPos="0.00" departSpeed="0.00" departDelay="0.00" arrival="199.00" arrivalLane="209_0" arrivalPos="395.59" arrivalSpeed="14.50" duration="175.00" routeLength="2111.89" waitingTime="0.00" waitingCount="0" stopTime="0.00" timeLoss="25.89" rerouteNo="0" devices="tripinfo_XXI_Aprile_7_7" vType="passenger1" speedFactor="1.06" vaporized=""/>
    <tripinfo id="Togliatti_12_83" depart="118.00" departLane="85_2" departPos="0.00" departSpeed="0.00" departDelay="0.00" arrival="200.00" arrivalLane="136_0" arrivalPos="186.20" arrivalSpeed="12.94" duration="82.00" routeLength="909.95" waitingTime="0.00" waitingCount="0" stopTime="0.00" timeLoss="14.69" rerouteNo="0" devices="tripinfo_Togliatti_12_83" vType="passenger3" speedFactor="1.01" vaporized=""/>
    <tripinfo id="bus_91_0" depart="8.00" departLane="55_0" departPos="0.00" departSpeed="0.00" departDelay="8.00" arrival="203.00" arrivalLane="114_0" arrivalPos="692.70" arrivalSpeed="12.94" duration="195.00" routeLength="1058.08" waitingTime="48.00" waitingCount="2" stopTime="40.00" timeLoss="78.51" rerouteNo="0" devices="tripinfo_bus_91_0" vType="bus" speedFactor="1.00" vaporized=""/>
    <tripinfo id="Silvani_11_16" depart="37.00" departLane="203[0]_0" departPos="0.00" departSpeed="0.00" departDelay="0.00" arrival="203.00" arrivalLane="114_1" arrivalPos="692.70" arrivalSpeed="13.72" duration="166.00" routeLength="1114.25" waitingTime="71.00" waitingCount="1" stopTime="0.00" timeLoss="86.42" rerouteNo="0" devices="tripinfo_Silvani_11_16" vType="passenger3" speedFactor="1.02" vaporized=""/>
    <tripinfo id="Togliatti_3_39" depart="55.00" departLane="85_0" departPos="0.00" departSpeed="0.00" departDelay="0.00" arrival="206.00" arrivalLane="14_0" arrivalPos="77.26" arrivalSpeed="12.89" duration="151.00" routeLength="1110.28" waitingTime="49.00" waitingCount="1" stopTime="0.00" timeLoss="66.51" rerouteNo="0" devices="tripinfo_Togliatti_3_39" vType="passenger2b" speedFactor="0.98" vaporized=""/>
    <tripinfo id="bus_86_60" depart="60.00" departLane="55_0" departPos="0.00" departSpeed="0.00" departDelay="0.00" arrival="207.00" arrivalLane="114_0" arrivalPos="692.70" arrivalSpeed="13.49" duration="147.00" routeLength="1058.08" waitingTime="1.00" waitingCount="1" stopTime="40.00" timeLoss="30.34" rerouteNo="0" devices="tripinfo_bus_86_60" vType="bus" speedFactor="1.00" vaporized=""/>
    <tripinfo id="XXI_Aprile_1_18" depart="64.00" departLane="13_0" departPos="0.00" departSpeed="0.00" departDelay="0.00" arrival="207.00" arrivalLane="86_2" arrivalPos="321.19" arrivalSpeed="15.21" duration="143.00" routeLength="1112.82" waitingTime="42.00" waitingCount="2" stopTime="0.00" timeLoss="72.00" rerouteNo="0" devices="tripinfo_XXI_Aprile_1_18" vType="passenger2a" speedFactor="1.15" vaporized=""/>
    <tripinfo id="Silvani_11_24" depart="56.00" departLane="203[0]_0" departPos="0.00" departSpeed="0.00" departDelay="0.00" arrival="208.00" arrivalLane="114_2" arrivalPos="692.70" arrivalSpeed="13.71" duration="152.00" routeLength="1114.25" waitingTime="59.00" waitingCount="1" stopTime="0.00" timeLoss="76.26" rerouteNo="0" devices="tripinfo_Silvani_11_24" vType="passenger1" speedFactor="1.06" vaporized=""/>
    <tripinfo id="Pepoli_8_44" depart="75.00" departLane="210_0" departPos="0.00" departSpeed="0.00" departDelay="0.00" arrival="208.00" arrivalLane="134b_0" arrivalPos="156.17" arrivalSpeed="11.15" duration="133.00" routeLength="692.71" waitingTime="54.00" waitingCount="2" stopTime="0.00" timeLoss="73.04" rerouteNo="0" devices="tripinfo_Pepoli_8_44" vType="passenger3" speedFactor="0.85" vaporized=""/>
    <tripinfo id="Silvani_11_17" depart="40.00" departLane="203[0]_0" departPos="0.00" departSpeed="0.00" departDelay="0.00" arrival="209.00" arrivalLane="114_1" arrivalPos="692.70" arrivalSpeed="12.17" duration="169.00" routeLength="1114.25" waitingTime="69.00" waitingCount="1" stopTime="0.00" timeLoss="83.30" rerouteNo="0" devices="tripinfo_Silvani_11_17" vType="passenger3" speedFactor="0.94" vaporized=""/>
    <tripinfo id="Togliatti_3_56" depart="79.00" departLane="85_0" departPos="0.00" departSpeed="0.00" departDelay="0.00" arrival="210.00" arrivalLane="14_0" arrivalPos="77.26" arrivalSpeed="15.24" duration="131.00" routeLength="1110.28" waitingTime="35.00" waitingCount="1" stopTime="0.00" timeLoss="58.43" rerouteNo="0" devices="tripinfo_Togliatti_3_56" vType="passenger1" speedFactor="1.13" vaporized=""/>
    <tripinfo id="Pepoli_8_48" depart="82.00" departLane="210_0" departPos="0.00" departSpeed="0.00" departDelay="0.00" arrival="210.00" arrivalLane="134b_0" arrivalPos="156.17" arrivalSpeed="14.19" duration="128.00" routeLength="692.71" waitingTime="54.00" waitingCount="2" stopTime="0.00" timeLoss="81.59" rerouteNo="0" devices="tripinfo_Pepoli_8_48" vType="passenger2a" speedFactor="1.11" vaporized=""/>
    <tripinfo id="Togliatti_2_40" depart="57.00" departLane="85_0" departPos="0.00" departSpeed="0.00" departDelay="1.00" arrival="211.00" arrivalLane="77[1][1]_0" arrivalPos="463.98" arrivalSpeed="12.57" duration="154.00" routeLength="1145.48" waitingTime="48.00" waitingCount="1" stopTime="0.00" timeLoss="65.66" rerouteNo="0" devices="tripinfo_Togliatti_2_40" vType="passenger2b" speedFactor="0.96" vaporized=""/>