<?xml version="1.0" encoding="UTF-8"?>

<!-- generated on 2024-01-27 14:28:43 by Eclipse SUMO sumo Version 1.19.0
<configuration xmlns:xsi="http://www.w3.org/2001/XMLSchema-instance" xsi:noNamespaceSchemaLocation="http://sumo.dlr.de/xsd/sumoConfiguration.xsd">

    <input>
        <net-file value="scenarios/bologna/acosta/acosta_buslanes.net.xml"/>
        <route-files value="scenarios/bologna/acosta/acosta.rou.xml,scenarios/bologna/acosta/acosta_busses.rou.xml"/>
        <additional-files value="scenarios/bologna/acosta/acosta_vtypes.add.xml,scenarios/bologna/acosta/acosta_detectors.add.xml,scenarios/bologna/acosta/acosta_bus_stops.add.xml,scenarios/bologna/acosta/acosta_tls.add.xml"/>
    </input>

    <output>
        <output-prefix value="ce0b92b0-b682-45a4-b8d1-8335c86ffcc5"/>
        <summary-output value="scenarios/bologna/acosta/summary.xml"/>
        <tripinfo-output value="scenarios/bologna/acosta/tripinfo-output.xml"/>
        <statistic-output value="scenarios/bologna/acosta/statistics.xml"/>
    </output>

    <report>
        <log value="scenarios/bologna/acosta/sumo_log.txt"/>
        <no-step-log value="true"/>
    </report>

    <gui_only>
        <gui-settings-file value="scenarios/bologna/acosta/settings.gui.xml"/>
    </gui_only>

</configuration>
-->

<tripinfos xmlns:xsi="http://www.w3.org/2001/XMLSchema-instance" xsi:noNamespaceSchemaLocation="http://sumo.dlr.de/xsd/tripinfo_file.xsd">
    <tripinfo id="Audinot_7_0" depart="0.00" departLane="131_0" departPos="0.00" departSpeed="0.00" departDelay="0.00" arrival="77.00" arrivalLane="209_0" arrivalPos="395.59" arrivalSpeed="13.02" duration="77.00" routeLength="873.23" waitingTime="0.00" waitingCount="0" stopTime="0.00" timeLoss="10.41" rerouteNo="0" devices="tripinfo_Audinot_7_0" vType="passenger4" speedFactor="0.98" vaporized=""/>
    <tripinfo id="Togliatti_12_15" depart="21.00" departLane="85_2" departPos="0.00" departSpeed="0.00" departDelay="0.00" arrival="103.00" arrivalLane="136_0" arrivalPos="186.20" arrivalSpeed="12.43" duration="82.00" routeLength="909.95" waitingTime="0.00" waitingCount="0" stopTime="0.00" timeLoss="10.12" rerouteNo="0" devices="tripinfo_Togliatti_12_15" vType="passenger3" speedFactor="0.94" vaporized=""/>
    <tripinfo id="Togliatti_2_8" depart="11.00" departLane="85_0" departPos="0.00" departSpeed="0.00" departDelay="0.00" arrival="111.00" arrivalLane="77[1][1]_0" arrivalPos="463.98" arrivalSpeed="14.96" duration="100.00" routeLength="1145.48" waitingTime="6.00" waitingCount="1" stopTime="0.00" timeLoss="23.30" rerouteNo="0" devices="tripinfo_Togliatti_2_8" vType="passenger2a" speedFactor="1.10" vaporized=""/>
    <tripinfo id="Silvani_11_9" depart="21.00" departLane="203[0]_0" departPos="0.00" departSpeed="0.00" departDelay="0.00" arrival="114.00" arrivalLane="114_1" arrivalPos="692.70" arrivalSpeed="14.80" duration="93.00" routeLength="1114.25" waitingTime="5.00" waitingCount="1" stopTime="0.00" timeLoss="22.91" rerouteNo="0" devices="tripinfo_Silvani_11_9" vType="passenger4" speedFactor="1.15" vaporized=""/>
    <tripinfo id="Togliatti_12_24" depart="34.00" departLane="85_2" departPos="0.00" departSpeed="0.00" departDelay="0.00" arrival="116.00" arrivalLane="136_0" arrivalPos="186.20" arrivalSpeed="12.80" duration="82.00" routeLength="909.95" waitingTime="0.00" waitingCount="0" stopTime="0.00" timeLoss="10.63" rerouteNo="0" devices="tripinfo_Togliatti_12_24" vType="passenger1" speedFactor="0.95" vaporized=""/>
    <tripinfo id="Costa_1_4" depart="15.00" departLane="78[0]_0" departPos="0.00" departSpeed="0.00" departDelay="5.00" arrival="120.00" arrivalLane="86_2" arrivalPos="321.19" arrivalSpeed="13.28" duration="105.00" routeLength="1185.38" waitingTime="0.00" waitingCount="0" stopTime="0.00" timeLoss="16.86" rerouteNo="0" devices="tripinfo_Costa_1_4" vType="passenger2a" speedFactor="0.99" vaporized=""/>
    <tripinfo id="Silvani_11_14" depart="33.00" departLane="203[0]_0" departPos="0.00" departSpeed="0.00" departDelay="0.00" arrival="120.00" arrivalLane="114_2" arrivalPos="692.70" arrivalSpeed="14.81" duration="87.00" routeLength="1114.25" waitingTime="0.00" waitingCount="0" stopTime="0.00" timeLoss="16.63" rerouteNo="0" devices="tripinfo_Silvani_11_14" vType="passenger3" speedFactor="1.14" vaporized=""/>
    <tripinfo id="Silvani_11_1" depart="3.00" departLane="203[0]_0" departPos="0.00" departSpeed="0.00" departDelay="1.00" arrival="121.00" arrivalLane="114_0" arrivalPos="692.70" arrivalSpeed="12.72" duration="118.00" routeLength="1114.25" waitingTime="15.00" waitingCount="1" stopTime="0.00" timeLoss="30.53" rerouteNo="0" devices="tripinfo_Silvani_11_1" vType="passenger2b" speedFactor="0.92" vaporized=""/>
    <tripinfo id="Costa_1_2" depart="9.00" departLane="78[0]_0" departPos="0.00" departSpeed="0.00" departDelay="4.00" arrival="121.00" arrivalLane="86_0" arrivalPos="321.19" arrivalSpeed="14.14" duration="112.00" routeLength="1191.74" waitingTime="10.00" waitingCount="1" stopTime="0.00" timeLoss="25.81" rerouteNo="0" devices="tripinfo_Costa_1_2" vType="passenger2b" speedFactor="1.02" vaporized=""/>
    <tripinfo id="Silvani_11_8" depart="18.00" departLane="203[0]_0" departPos="0.00" departSpeed="0.00" departDelay="0.00" arrival="122.00" arrivalLane="114_1" arrivalPos="692.70" arrivalSpeed="12.31" duration="104.00" routeLength="1114.25" waitingTime="6.00" waitingCount="1" stopTime="0.00" timeLoss="19.98" rerouteNo="0" devices="tripinfo_Silvani_11_8" vType="passenger3" speedFactor="0.96" vaporized=""/>
    <tripinfo id="Silvani_11_13" depart="30.00" departLane="203[0]_0" departPos="0.00" departSpeed="0.00" departDelay="0.00" arrival="124.00" arrivalLane="114_1" arrivalPos="692.70" arrivalSpeed="13.95" duration="94.00" routeLength="1114.25" waitingTime="0.00" waitingCount="0" stopTime="0.00" timeLoss="17.34" rerouteNo="0" devices="tripinfo_Silvani_11_13" vType="passenger1" speedFactor="1.06" vaporized=""/>
    <tripinfo id="Silvani_11_0" depart="0.00" departLane="203[0]_0" departPos="0.00" departSpeed="0.00" departDelay="0.00" arrival="125.00" arrivalLane="114_0" arrivalPos="692.70" arrivalSpeed="10.24" duration="125.00" routeLength="1114.25" waitingTime="16.00" waitingCount="1" stopTime="0.00" timeLoss="28.09" rerouteNo="0" devices="tripinfo_Silvani_11_0" vType="passenger3" speedFactor="0.83" vaporized=""/>
    <tripinfo id="Silvani_11_12" depart="28.00" departLane="203[0]_0" departPos="0.00" departSpeed="0.00" departDelay="0.00" arrival="126.00" arrivalLane="114_1" arrivalPos="692.70" arrivalSpeed="12.74" duration="98.00" routeLength="1114.25" waitingTime="1.00" waitingCount="1" stopTime="0.00" timeLoss="15.24" rerouteNo="0" devices="tripinfo_Silvani_11_12" vType="passenger2b" speedFactor="0.98" vaporized=""/>
    <tripinfo id="Togliatti_3_18" depart="25.00" departLane="85_0" departPos="0.00" departSpeed="0.00" departDelay="0.00" arrival="127.00" arrivalLane="14_0" arrivalPos="77.26" arrivalSpeed="11.86" duration="102.00" routeLength="1110.28" waitingTime="0.00" waitingCount="0" stopTime="0.00" timeLoss="12.05" rerouteNo="0" devices="tripinfo_Togliatti_3_18" vType="passenger2a" speedFactor="0.92" vaporized=""/>
    <tripinfo id="Costa_3_21" depart="55.00" departLane="78[0]_0" departPos="0.00" departSpeed="0.00" departDelay="1.00" arrival="128.00" arrivalLane="14_0" arrivalPos="77.26" arrivalSpeed="15.56" duration="73.00" routeLength="850.23" waitingTime="0.00" waitingCount="0" stopTime="0.00" timeLoss="17.85" rerouteNo="0" devices="tripinfo_Costa_3_21" vType="passenger1" speedFactor="1.13" vaporized=""/>
    <tripinfo id="Costa_1_15" depart="39.00" departLane="78[0]_0" departPos="0.00" departSpeed="0.00" departDelay="0.00" arrival="132.00" arrivalLane="86_2" arrivalPos="321.19" arrivalSpeed="15.69" duration="93.00" routeLength="1185.38" waitingTime="0.00" waitingCount="0" stopTime="0.00" timeLoss="18.19" rerouteNo="0" devices="tripinfo_Costa_1_15" vType="passenger4" speedFactor="1.18" vaporized=""/>
    <tripinfo id="Togliatti_3_31" depart="44.00" departLane="85_0" departPos="0.00" departSpeed="0.00" departDelay="0.00" arrival="137.00" arrivalLane="14_0" arrivalPos="77.26" arrivalSpeed="13.14" duration="93.00" routeLength="1110.28" waitingTime="0.00" waitingCount="0" stopTime="0.00" timeLoss="13.76" rerouteNo="0" devices="tripinfo_Togliatti_3_31" vType="passenger1" speedFactor="1.04" vaporized=""/>
    <tripinfo id="Costa_1_19" depart="50.00" departLane="78[0]_0" departPos="0.00" departSpeed="0.00" departDelay="1.00" arrival="139.00" arrivalLane="86_2" arrivalPos="321.19" arrivalSpeed="16.84" duration="89.00" routeLength="1185.38" waitingTime="0.00" waitingCount="0" stopTime="0.00" timeLoss="16.83" rerouteNo="0" devices="tripinfo_Costa_1_19" vType="passenger2a" speedFactor="1.21" vaporized=""/>
    <tripinfo id="Costa_12_0" depart="0.00" departLane="78[0]_0" departPos="0.00" departSpeed="0.00" departDelay="0.00" arrival="140.00" arrivalLane="136_0" arrivalPos="186.20" arrivalSpeed="14.66" duration="140.00" routeLength="1416.45" waitingTime="21.00" waitingCount="1" stopTime="0.00" timeLoss="42.95" rerouteNo="0" devices="tripinfo_Costa_12_0" vType="passenger1" speedFactor="1.08" vaporized=""/>
    <tripinfo id="Costa_1_17" depart="44.00" departLane="78[0]_0" departPos="0.00" departSpeed="0.00" departDelay="0.00" arrival="141.00" arrivalLane="86_0" arrivalPos="321.19" arrivalSpeed="13.88" duration="97.00" routeLength="1188.91" waitingTime="0.00" waitingCount="0" stopTime="0.00" timeLoss="11.70" rerouteNo="0" devices="tripinfo_Costa_1_17" vType="passenger1" speedFactor="1.03" vaporized=""/>
    <tripinfo id="Togliatti_2_32" depart="47.00" departLane="85_0" departPos="0.00" departSpeed="0.00" departDelay="2.00" arrival="141.00" arrivalLane="77[1][1]_0" arrivalPos="463.98" arrivalSpeed="13.43" duration="94.00" routeLength="1145.48" waitingTime="0.00" waitingCount="0" stopTime="0.00" timeLoss="12.55" rerouteNo="0" devices="tripinfo_Togliatti_2_32" vType="passenger3" speedFactor="1.04" vaporized=""/>
    <tripinfo id="Costa_12_1" depart="7.00" departLane="78[0]_0" departPos="0.00" departSpeed="0.00" departDelay="5.00" arrival="142.00" arrivalLane="136_0" arrivalPos="186.20" arrivalSpeed="14.83" duration="135.00" routeLength="1416.45" waitingTime="16.00" waitingCount="1" stopTime="0.00" timeLoss="38.47" rerouteNo="0" devices="tripinfo_Costa_12_1" vType="passenger2b" speedFactor="1.09" vaporized=""/>
    <tripinfo id="Costa_12_3" depart="12.00" departLane="78[0]_0" departPos="0.00" departSpeed="0.00" departDelay="5.00" arrival="147.00" arrivalLane="136_0" arrivalPos="186.20" arrivalSpeed="13.22" duration="135.00" routeLength="1413.62" waitingTime="9.00" waitingCount="1" stopTime="0.00" timeLoss="30.51" rerouteNo="0" devices="tripinfo_Costa_12_3" vType="passenger1" speedFactor="1.01" vaporized=""/>
    <tripinfo id="XXI_Aprile_12_6" depart="21.00" departLane="13_0" departPos="0.00" departSpeed="0.00" departDelay="0.00" arrival="151.00" arrivalLane="136_0" arrivalPos="186.20" arrivalSpeed="12.66" duration="130.00" routeLength="1343.89" waitingTime="3.00" waitingCount="1" stopTime="0.00" timeLoss="24.95" rerouteNo="0" devices="tripinfo_XXI_Aprile_12_6" vType="passenger1" speedFactor="0.94" vaporized=""/>
    <tripinfo id="Costa_12_7" depart="19.00" departLane="78[0]_0" departPos="0.00" departSpeed="0.00" departDelay="1.00" arrival="153.00" arrivalLane="136_0" arrivalPos="186.20" arrivalSpeed="14.46" duration="134.00" routeLength="1416.45" waitingTime="1.00" waitingCount="1" stopTime="0.00" timeLoss="38.66" rerouteNo="0" devices="tripinfo_Costa_12_7" vType="passenger5" speedFactor="1.10" vaporized=""/>
    <tripinfo id="Turati_3_2" depart="69.00" departLane="195_0" departPos="0.00" departSpeed="0.00" departDelay="0.00" arrival="155.00" arrivalLane="14_0" arrivalPos="77.26" arrivalSpeed="13.07" duration="86.00" routeLength="947.57" waitingTime="2.00" waitingCount="1" stopTime="0.00" timeLoss="16.68" rerouteNo="0" devices="tripinfo_Turati_3_2" vType="ignoring1" speedFactor="1.00" vaporized=""/>
    <tripinfo id="Pepoli_3_0" depart="0.00" departLane="210_2" departPos="0.00" departSpeed="0.00" departDelay="0.00" arrival="157.00" arrivalLane="14_0" arrivalPos="77.26" arrivalSpeed="12.69" duration="157.00" routeLength="1941.55" waitingTime="0.00" waitingCount="0" stopTime="0.00" timeLoss="15.36" rerouteNo="0" devices="tripinfo_Pepoli_3_0" vType="ignoring2b" speedFactor="1.00" vaporized=""/>
    <tripinfo id="Costa_12_9" depart="26.00" departLane="78[0]_0" departPos="0.00" departSpeed="0.00" departDelay="3.00" arrival="157.00" arrivalLane="136_0" arrivalPos="186.20" arrivalSpeed="12.20" duration="131.00" routeLength="1416.45" waitingTime="0.00" waitingCount="0" stopTime="0.00" timeLoss="17.06" rerouteNo="0" devices="tripinfo_Costa_12_9" vType="passenger3" speedFactor="0.91" vaporized=""/>
    <tripinfo id="Costa_12_11" depart="29.00" departLane="78[0]_0" departPos="0.00" departSpeed="0.00" departDelay="1.00" arrival="159.00" arrivalLane="136_0" arrivalPos="186.20" arrivalSpeed="14.59" duration="130.00" routeLength="1413.62" waitingTime="0.00" waitingCount="0" stopTime="0.00" timeLoss="33.48" rerouteNo="0" devices="tripinfo_Costa_12_11" vType="passenger2a" speedFactor="1.08" vaporized=""/>
    <tripinfo id="Pepoli_3_2" depart="3.00" departLane="210_2" departPos="0.00" departSpeed="0.00" departDelay="0.00" arrival="160.00" arrivalLane="14_0" arrivalPos="77.26" arrivalSpeed="12.66" duration="157.00" routeLength="1941.55" waitingTime="0.00" waitingCount="0" stopTime="0.00" timeLoss="15.33" rerouteNo="0" devices="tripinfo_Pepoli_3_2" vType="ignoring1" speedFactor="1.00" vaporized=""/>
    <tripinfo id="Costa_12_14" depart="36.00" departLane="78[0]_0" departPos="0.00" departSpeed="0.00" departDelay="0.00" arrival="160.00" arrivalLane="136_0" arrivalPos="186.20" arrivalSpeed="13.81" duration="124.00" routeLength="1413.62" waitingTime="0.00" waitingCount="0" stopTime="0.00" timeLoss="26.46" rerouteNo="0" devices="tripinfo_Costa_12_14" vType="passenger3" speedFactor="1.06" vaporized=""/>
    <tripinfo id="Costa_12_13" depart="33.00" departLane="78[0]_0" departPos="0.00" departSpeed="0.00" departDelay="0.00" arrival="162.00" arrivalLane="136_0" arrivalPos="186.20" arrivalSpeed="15.08" duration="129.00" routeLength="1416.45" waitingTime="0.00" waitingCount="0" stopTime="0.00" timeLoss="33.30" rerouteNo="0" devices="tripinfo_Costa_12_13" vType="passenger2b" speedFactor="1.10" vaporized=""/>
    <tripinfo id="Costa_12_18" depart="47.00" departLane="78[0]_0" departPos="0.00" departSpeed="0.00" departDelay="0.00" arrival="163.00" arrivalLane="136_0" arrivalPos="186.20" arrivalSpeed="14.78" duration="116.00" routeLength="1413.62" waitingTime="0.00" waitingCount="0" stopTime="0.00" timeLoss="22.18" rerouteNo="0" devices="tripinfo_Costa_12_18" vType="passenger1" speedFactor="1.11" vaporized=""/>
    <tripinfo id="Vittorio_Veneto_1_10" depart="45.00" departLane="224[0]_0" departPos="0.00" departSpeed="0.00" departDelay="0.00" arrival="164.00" arrivalLane="86_1" arrivalPos="321.19" arrivalSpeed="12.89" duration="119.00" routeLength="1142.43" waitingTime="13.00" waitingCount="2" stopTime="0.00" timeLoss="36.15" rerouteNo="0" devices="tripinfo_Vittorio_Veneto_1_10" vType="passenger1" speedFactor="1.01" vaporized=""/>
    <tripinfo id="Vittorio_Veneto_1_4" depart="18.00" departLane="224[0]_0" departPos="0.00" departSpeed="0.00" departDelay="0.00" arrival="165.00" arrivalLane="86_0" arrivalPos="321.19" arrivalSpeed="13.59" duration="147.00" routeLength="1142.43" waitingTime="44.00" waitingCount="2" stopTime="0.00" timeLoss="62.99" rerouteNo="0" devices="tripinfo_Vittorio_Veneto_1_4" vType="passenger1" speedFactor="1.00" vaporized=""/>
    <tripinfo id="XXI_Aprile_2_12" depart="42.00" departLane="13_0" departPos="0.00" departSpeed="0.00" departDelay="0.00" arrival="169.00" arrivalLane="77[1][1]_0" arrivalPos="463.98" arrivalSpeed="14.22" duration="127.00" routeLength="976.81" waitingTime="44.00" waitingCount="1" stopTime="0.00" timeLoss="62.17" rerouteNo="0" devices="tripinfo_XXI_Aprile_2_12" vType="passenger4" speedFactor="1.10" vaporized=""/>
    <tripinfo id="Vittorio_Veneto_1_12" depart="55.00" departLane="224[0]_0" departPos="0.00" departSpeed="0.00" departDelay="0.00" arrival="171.00" arrivalLane="86_0" arrivalPos="321.19" arrivalSpeed="10.86" duration="116.00" routeLength="1142.43" waitingTime="3.00" waitingCount="1" stopTime="0.00" timeLoss="19.11" rerouteNo="0" devices="tripinfo_Vittorio_Veneto_1_12" vType="passenger1" speedFactor="0.87" vaporized=""/>
    <tripinfo id="Pepoli_3_12" depart="20.00" departLane="210_2" departPos="0.00" departSpeed="0.00" departDelay="0.00" arrival="177.00" arrivalLane="14_0" arrivalPos="77.26" arrivalSpeed="13.53" duration="157.00" routeLength="1941.55" waitingTime="0.00" waitingCount="0" stopTime="0.00" timeLoss="14.70" rerouteNo="0" devices="tripinfo_Pepoli_3_12" vType="ignoring5" speedFactor="1.00" vaporized=""/>
    <tripinfo id="Costa_12_23" depart="61.00" departLane="78[0]_0" departPos="0.00" departSpeed="0.00" departDelay="1.00" arrival="178.00" arrivalLane="136_0" arrivalPos="186.20" arrivalSpeed="13.82" duration="117.00" routeLength="1413.62" waitingTime="0.00" waitingCount="0" stopTime="0.00" timeLoss="15.80" rerouteNo="0" devices="tripinfo_Costa_12_23" vType="passenger2b" speedFactor="1.03" vaporized=""/>
    <tripinfo id="Costa_12_24" depart="64.00" departLane="78[0]_0" departPos="0.00" departSpeed="0.00" departDelay="2.00" arrival="180.00" arrivalLane="136_0" arrivalPos="186.20" arrivalSpeed="15.93" duration="116.00" routeLength="1416.45" waitingTime="0.00" waitingCount="0" stopTime="0.00" timeLoss="27.16" rerouteNo="0" devices="tripinfo_Costa_12_24" vType="passenger1" speedFactor="1.18" vaporized=""/>
    <tripinfo id="Pepoli_3_14" depart="24.00" departLane="210_2" departPos="0.00" departSpeed="0.00" departDelay="0.00" arrival="182.00" arrivalLane="14_0" arrivalPos="77.26" arrivalSpeed="13.80" duration="158.00" routeLength="1941.55" waitingTime="0.00" waitingCount="0" stopTime="0.00" timeLoss="16.22" rerouteNo="0" devices="tripinfo_Pepoli_3_14" vType="ignoring1" speedFactor="1.00" vaporized=""/>
    <tripinfo id="Turati_3_3" depart="104.00" departLane="195_0" departPos="0.00" departSpeed="0.00" departDelay="0.00" arrival="186.00" arrivalLane="14_0" arrivalPos="77.26" arrivalSpeed="13.28" duration="82.00" routeLength="947.57" waitingTime="0.00" waitingCount="0" stopTime="0.00" timeLoss="12.77" rerouteNo="0" devices="tripinfo_Turati_3_3" vType="ignoring1" speedFactor="1.00" vaporized=""/>
    <tripinfo id="Togliatti_12_48" depart="68.00" departLane="85_2" departPos="0.00" departSpeed="0.00" departDelay="0.00" arrival="189.00" arrivalLane="136_0" arrivalPos="186.20" arrivalSpeed="13.76" duration="121.00" routeLength="909.95" waitingTime="39.00" waitingCount="2" stopTime="0.00" timeLoss="55.90" rerouteNo="0" devices="tripinfo_Togliatti_12_48" vType="passenger2a" speedFactor="1.04" vaporized=""/>
    <tripinfo id="Togliatti_12_59" depart="84.00" departLane="85_2" departPos="0.00" departSpeed="0.00" departDelay="0.00" arrival="191.00" arrivalLane="136_0" arrivalPos="186.20" arrivalSpeed="15.16" duration="107.00" routeLength="909.95" waitingTime="24.00" waitingCount="1" stopTime="0.00" timeLoss="46.93" rerouteNo="0" devices="tripinfo_Togliatti_12_59" vType="passenger1" speedFactor="1.12" vaporized=""/>
    <tripinfo id="Costa_3_33" depart="88.00" departLane="78[0]_0" departPos="0.00" departSpeed="0.00" departDelay="2.00" arrival="195.00" arrivalLane="14_0" arrivalPos="77.26" arrivalSpeed="13.03" duration="107.00" routeLength="850.23" waitingTime="10.00" waitingCount="1" stopTime="0.00" timeLoss="41.56" rerouteNo="0" devices="tripinfo_Costa_3_33" vType="passenger2b" speedFactor="0.95" vaporized=""/>
    <tripinfo id="Togliatti_12_79" depart="112.00" departLane="85_2" departPos="0.00" departSpeed="0.00" departDelay="0.00" arrival="195.00" arrivalLane="136_0" arrivalPos="186.20" arrivalSpeed="13.50" duration="83.00" routeLength="909.95" waitingTime="0.00" waitingCount="0" stopTime="0.00" timeLoss="16.81" rerouteNo="0" devices="tripinfo_Togliatti_12_79" vType="passenger1" speedFactor="1.02" vaporized=""/>
    <tripinfo id="bus_13_0" depart="0.00" departLane="55_0" departPos="0.00" departSpeed="0.00" departDelay="0.00" arrival="196.00" arrivalLane="114_1" arrivalPos="692.70" arrivalSpeed="13.58" duration="196.00" routeLength="1058.08" waitingTime="59.00" waitingCount="1" stopTime="40.00" timeLoss="79.65" rerouteNo="0" devices="tripinfo_bus_13_0" vType="bus" speedFactor="1.00" vaporized=""/>
    <tripinfo id="bus_81_0" depart="4.00" departLane="55_0" departPos="0.00" departSpeed="0.00" departDelay="4.00" arrival="197.00" arrivalLane="114_0" arrivalPos="692.70" arrivalSpeed="12.92" duration="193.00" routeLength="1058.08" waitingTime="49.00" waitingCount="1" stopTime="40.00" timeLoss="76.76" rerouteNo="0" devices="tripinfo_bus_81_0" vType="bus" speedFactor="1.00" vaporized=""/>
    <tripinfo id="Costa_3_38" depart="102.00" departLane="78[0]_0" departPos="0.00" departSpeed="0.00" departDelay="3.00" arrival="197.00" arrivalLane="14_0" arrivalPos="77.26" arrivalSpeed="12.12" duration="95.00" routeLength="850.23" waitingTime="6.00" waitingCount="1" stopTime="0.00" timeLoss="29.86" rerouteNo="0" devices="tripinfo_Costa_3_38" vType="passenger1" speedFactor="0.96" vaporized=""/>
    <tripinfo id="Togliatti_12_83" depart="118.00" departLane="85_2" departPos="0.00" departSpeed="0.00" departDelay="0.00" arrival="198.00" arrivalLane="136_0" arrivalPos="186.20" arrivalSpeed="12.82" duration="80.00" routeLength="909.95" waitingTime="0.00" waitingCount="0" stopTime="0.00" timeLoss="13.58" rerouteNo="0" devices="tripinfo_Togliatti_12_83" vType="passenger3" speedFactor="1.01" vaporized=""/>
    <tripinfo id="Silvani_11_16" depart="37.00" departLane="203[0]_0" departPos="0.00" departSpeed="0.00" departDelay="0.00" arrival="203.00" arrivalLane="114_1" arrivalPos="692.70" arrivalSpeed="13.42" duration="166.00" routeLength="1114.25" waitingTime="70.00" waitingCount="1" stopTime="0.00" timeLoss="86.91" rerouteNo="0" devices="tripinfo_Silvani_11_16" vType="passenger3" speedFactor="1.02" vaporized=""/>
    <tripinfo id="Togliatti_3_39" depart="55.00" departLane="85_0" departPos="0.00" departSpeed="0.00" departDelay="0.00" arrival="203.00" arrivalLane="14_0" arrivalPos="77.26" arrivalSpeed="13.40" duration="148.00" routeLength="1110.28" waitingTime="48.00" waitingCount="1" stopTime="0.00" timeLoss="64.77" rerouteNo="0" devices="tripinfo_Togliatti_3_39" vType="passenger2b" speedFactor="0.98" vaporized=""/>
    <tripinfo id="bus_91_0" depart="8.00" departLane="55_0" departPos="0.00" departSpeed="0.00" departDelay="8.00" arrival="204.00" arrivalLane="114_0" arrivalPos="692.70" arrivalSpeed="12.97" duration="196.00" routeLength="1058.08" waitingTime="46.00" waitingCount="2" stopTime="40.00" timeLoss="79.12" rerouteNo="0" devices="tripinfo_bus_91_0" vType="bus" speedFactor="1.00" vaporized=""/>
    <tripinfo id="bus_86_60" depart="60.00" departLane="55_0" departPos="0.00" departSpeed="0.00" departDelay="0.00" arrival="207.00" arrivalLane="114_0" arrivalPos="692.70" arrivalSpeed="13.87" duration="147.00" routeLength="1058.08" waitingTime="3.00" waitingCount="2" stopTime="40.00" timeLoss="30.36" rerouteNo="0" devices="tripinfo_bus_86_60" vType="bus" speedFactor="1.00" vaporized=""/>
    <tripinfo id="XXI_Aprile_1_18" depart="64.00" departLane="13_0" departPos="0.00" departSpeed="0.00" departDelay="0.00" arrival="207.00" arrivalLane="86_2" arrivalPos="321.19" arrivalSpeed="14.95" duration="143.00" routeLength="1112.82" waitingTime="44.00" waitingCount="2" stopTime="0.00" timeLoss="71.15" rerouteNo="0" devices="tripinfo_XXI_Aprile_1_18" vType="passenger2a" speedFactor="1.15" vaporized=""/>
    <tripinfo id="Togliatti_2_40" depart="57.00" departLane="85_0" departPos="0.00" departSpeed="0.00" departDelay="1.00" arrival="209.00" arrivalLane="77[1][1]_0" arrivalPos="463.98" arrivalSpeed="12.57" duration="152.00" routeLength="1145.48" waitingTime="45.00" waitingCount="1" stopTime="0.00" timeLoss="63.91" rerouteNo="0" devices="tripinfo_Togliatti_2_40" vType="passenger2b" speedFactor="0.96" vaporized=""/>
    <tripinfo id="Silvani_11_17" depart="40.00" departLane="203[0]_0" departPos="0.00" departSpeed="0.00" departDelay="0.00" arrival="210.00" arrivalLane="114_0" arrivalPos="692.70" arrivalSpeed="12.24" duration="170.00" routeLength="1114.25" waitingTime="70.00" waitingCount="1" stopTime="0.00" timeLoss="83.97" rerouteNo="0" devices="tripinfo_Silvani_11_17" vType="passenger3" speedFactor="0.94" vaporized=""/>
    <tripinfo id="Silvani_11_24" depart="56.00" departLane="203[0]_0" departPos="0.00" departSpeed="0.00" departDelay="0.00" arrival="211.00" arrivalLane="114_1" arrivalPos="692.70" arrivalSpeed="13.80" duration="155.00" routeLength="1114.25" waitingTime="59.00" waitingCount="1" stopTime="0.00" timeLoss="78.97" rerouteNo="0" devices="tripinfo_Silvani_11_24" vType="passenger1" speedFactor="1.06" vaporized=""/>
    <tripinfo id="Togliatti_2_45" depart="64.00" departLane="85_0" departPos="0.00" departSpeed="0.00" departDelay="0.00" arrival="211.00" arrivalLane="77[1][1]_0" arrivalPos="463.98" arrivalSpeed="14.01" duration="147.00" routeLength="1145.48" waitingTime="44.00" waitingCount="1" stopTime="0.00" timeLoss="64.29" rerouteNo="0" devices="tripinfo_Togliatti_2_45" vType="passenger3" speedFactor="1.03" vaporized=""/>
    <tripinfo id="Togliatti_3_56" depart="79.00" departLane="85_0" departPos="0.00" departSpeed="0.00" departDelay="0.00" arrival="211.00" arrivalLane="14_0" arrivalPos="77.26" arrivalSpeed="15.57" duration="132.00" routeLength="1110.28" waitingTime="32.00" waitingCount="1" stopTime="0.00" timeLoss="59.49" rerouteNo="0" devices="tripinfo_Togliatti_3_56" vType="passenger1" speedFactor="1.13" vaporized=""/>
    <tripinfo id="Silvani_11_27" depart="63.00" departLane="203[0]_0" departPos="0.00" departSpeed="0.00" departDelay="0.00" arrival="213.00" arrivalLane="114_1" arrivalPos="692.70" arrivalSpeed="14.01" duration="150.00" routeLength="1114.25" waitingTime="57.00" waitingCount="1" stopTime="0.00" timeLoss="74.11" rerouteNo="0" devices="tripinfo_Silvani_11_27" vType="passenger2a" speedFactor="1.07" vaporized=""/>
    <tripinfo id="Togliatti_2_47" depart="66.00" departLane="85_0" departPos="0.00" departSpeed="0.00" departDelay="0.00" arrival="213.00" arrivalLane="77[1][1]_0" arrivalPos="463.98" arrivalSpeed="13.20" duration="147.00" routeLength="1145.48" waitingTime="41.00" waitingCount="1" stopTime="0.00" timeLoss="60.51" rerouteNo="0" devices="tripinfo_Togliatti_2_47" vType="passenger3" speedFactor="0.98" vaporized=""/>
    <tripinfo id="Costa_1_28" depart="75.00" departLane="78[0]_0" departPos="0.00" departSpeed="0.00" departDelay="2.00" arrival="213.00" arrivalLane="86_0" arrivalPos="321.19" arrivalSpeed="12.19" duration="138.00" routeLength="1191.74" waitingTime="24.00" waitingCount="1" stopTime="0.00" timeLoss="41.88" rerouteNo="0" devices="tripinfo_Costa_1_28" vType="passenger2a" speedFactor="0.91" vaporized=""/>
    <tripinfo id="Silvani_11_32" depart="75.00" departLane="203[0]_0" departPos="0.00" departSpeed="0.00" departDelay="0.00" arrival="214.00" arrivalLane="114_1" arrivalPos="692.70" arrivalSpeed="14.07" duration="139.00" routeLength="1114.25" waitingTime="45.00" waitingCount="1" stopTime="0.00" timeLoss="61.63" rerouteNo="0" devices="tripinfo_Silvani_11_32" vType="passenger5" speedFactor="1.04" vaporized=""/>
    <tripinfo id="XXI_Aprile_1_27" depart="96.00" departLane="13_0" departPos="0.00" departSpeed="0.00" departDelay="0.00" arrival="214.00" arrivalLane="86_2" arrivalPos="321.19" arrivalSpeed="12.69" duration="118.00" routeLength="1112.82" waitingTime="8.00" waitingCount="1" stopTime="0.00" timeLoss="33.76" rerouteNo="0" devices="tripinfo_XXI_Aprile_1_27" vType="passenger1" speedFactor="0.98" vaporized=""/>
    <tripinfo id="Silvani_11_23" depart="54.00" departLane="203[0]_0" departPos="0.00" departSpeed="0.00" departDelay="0.00" arrival="215.00" arrivalLane="114_0" arrivalPos="692.70" arrivalSpeed="12.48" duration="161.00" routeLength="1114.25" waitingTime="60.00" waitingCount="1" stopTime="0.00" timeLoss="72.99" rerouteNo="0" devices="tripinfo_Silvani_11_23" vType="passenger3" speedFactor="0.91" vaporized=""/>
    <tripinfo id="XXI_Aprile_1_17" depart="60.00" departLane="13_0" departPos="0.00" departSpeed="0.00" departDelay="0.00" arrival="215.00" arrivalLane="86_1" arrivalPos="321.19" arrivalSpeed="12.40" duration="155.00" routeLength="1119.18" waitingTime="43.00" waitingCount="2" stopTime="0.00" timeLoss="67.38" rerouteNo="0" devices="tripinfo_XXI_Aprile_1_17" vType="passenger3" speedFactor="0.94" vaporized=""/>
    <tripinfo id="XXI_Aprile_1_35" depart="124.00" departLane="13_0" departPos="0.00" departSpeed="0.00" departDelay="0.00" arrival="216.00" arrivalLane="86_1" arrivalPos="321.19" arrivalSpeed="15.22" duration="92.00" routeLength="1119.18" waitingTime="0.00" waitingCount="0" stopTime="0.00" timeLoss="17.55" rerouteNo="0" devices="tripinfo_XXI_Aprile_1_35" vType="passenger2b" speedFactor="1.10" vaporized=""/>
    <tripinfo id="Togliatti_9_13" depart="21.00" departLane="85_1" departPos="0.00" departSpeed="0.00" departDelay="3.00" arrival="221.00" arrivalLane="54_1" arrivalPos="300.28" arrivalSpeed="13.39" duration="200.00" routeLength="1803.37" waitingTime="22.00" waitingCount="1" stopTime="0.00" timeLoss="71.84" rerouteNo="0" devices="tripinfo_Togliatti_9_13" vType="passenger1" speedFactor="1.02" vaporized=""/>
    <tripinfo id="bus_130_0" depart="0.00" departLane="121_0" departPos="0.00" departSpeed="0.00" departDelay="0.00" arrival="223.00" arrivalLane="54_0" arrivalPos="300.28" arrivalSpeed="13.81" duration="223.00" routeLength="1055.10" waitingTime="56.00" waitingCount="2" stopTime="60.00" timeLoss="86.54" rerouteNo="0" devices="tripinfo_bus_130_0" vType="bus" speedFactor="1.00" vaporized=""/>